#  -223949.58788744887

ATOMS
C     -0.21818   -0.35488    1.15802   1.0  1.0  1.0
C     -0.92199      0.735    2.00615   1.0  1.0  1.0
O      0.00511    -0.0058   -0.00888   1.0  1.0  1.0
N     -0.98151   -0.00213    3.14667   1.0  1.0  1.0
O      -1.9533   -0.78211    3.32999   1.0  1.0  1.0
O     -0.00288    0.00345    3.93951   1.0  1.0  1.0
H     -1.85081     0.8279    1.46395   1.0  1.0  1.0
H     -0.16677    1.50618    1.99023   1.0  1.0  1.0
H      -1.0737   -1.01248    1.40608   1.0  1.0  1.0
H      0.58253   -0.34503    1.92266   1.0  1.0  1.0


#  -223941.11245025863

ATOMS
C     -0.21303   -0.34317    1.17705   1.0  1.0  1.0
C     -0.91682    0.74182    2.03144   1.0  1.0  1.0
O      0.01029    0.01264    0.01218   1.0  1.0  1.0
N     -0.92131    0.03869     3.1943   1.0  1.0  1.0
O     -1.87737   -0.74303     3.4417   1.0  1.0  1.0
O      0.08994    0.07546     3.9442   1.0  1.0  1.0
H     -1.87206    0.81546    1.52788   1.0  1.0  1.0
H     -0.16078    1.51595    1.97189   1.0  1.0  1.0
H     -0.95729    -1.0629    1.57954   1.0  1.0  1.0
H      0.55605   -0.23026    1.97048   1.0  1.0  1.0


#  -223941.98355576594

ATOMS
C     -0.23473   -0.40713    1.13407   1.0  1.0  1.0
C     -1.00238    0.54716    2.08409   1.0  1.0  1.0
O     -0.04224    0.06713     0.0065   1.0  1.0  1.0
N      -0.8564   -0.22443    3.18897   1.0  1.0  1.0
O     -1.72444   -1.10242    3.43622   1.0  1.0  1.0
O       0.2125   -0.15335    3.85134   1.0  1.0  1.0
H     -1.99944    0.56828      1.665   1.0  1.0  1.0
H     -0.30725    1.37279    2.03064   1.0  1.0  1.0
H     -1.00396   -1.16599    1.36319   1.0  1.0  1.0
H      0.54166   -0.33894    1.92806   1.0  1.0  1.0


#  -223945.50878975607

ATOMS
C     -0.22236   -0.29171    1.22288   1.0  1.0  1.0
C     -0.98997    0.74672    2.08017   1.0  1.0  1.0
O     -0.02992    0.07575    0.05612   1.0  1.0  1.0
N     -0.84624    0.08332    3.25707   1.0  1.0  1.0
O     -1.69273   -0.78995    3.56814   1.0  1.0  1.0
O       0.2106    0.25386    3.92038   1.0  1.0  1.0
H     -1.97472    0.70161    1.64287   1.0  1.0  1.0
H      -0.3189     1.5847    1.95689   1.0  1.0  1.0
H     -1.03285   -1.00422    1.45852   1.0  1.0  1.0
H      0.56538   -0.18232    1.99744   1.0  1.0  1.0
