# -223944.976219332175515

ATOMS
C             -0.22451           -0.34646            1.16745      1.0  1.0  1.0 
C             -0.91697            0.72807            1.99904      1.0  1.0  1.0
O              0.00000            0.00000            0.00000      1.0  1.0  1.0
N             -0.97796           -0.00661            3.14107      1.0  1.0  1.0
O             -1.95042           -0.78556            3.32521      1.0  1.0  1.0
O             -0.00000           -0.00000            3.93472      1.0  1.0  1.0
H             -1.84527            0.82043            1.45585      1.0  1.0  1.0
H             -0.16123            1.49871            1.98213      1.0  1.0  1.0
H             -1.08068           -1.00297            1.41617      1.0  1.0  1.0
H              0.57555           -0.33552            1.93275      1.0  1.0  1.0


# -223939.868477997318339

ATOMS
C             -0.23085           -0.33801            1.17685      1.0  1.0  1.0
C             -0.91195            0.72110            1.99194      1.0  1.0  1.0
O             -0.00509            0.00579            0.00885      1.0  1.0  1.0
N             -0.97441           -0.01109            3.13549      1.0  1.0  1.0
O             -1.94755           -0.78899            3.32046      1.0  1.0  1.0
O              0.00286           -0.00343            3.92997      1.0  1.0  1.0
H             -1.83972            0.81292            1.44776      1.0  1.0  1.0
H             -0.15568            1.49120            1.97403      1.0  1.0  1.0
H             -1.08767           -0.99342            1.42623      1.0  1.0  1.0
H              0.56856           -0.32597            1.94281      1.0  1.0  1.0


# -223949.587887448881024

ATOMS  
C             -0.21818           -0.35488            1.15802      1.0  1.0  1.0
C             -0.92199            0.73500            2.00615      1.0  1.0  1.0
O              0.00511           -0.00580           -0.00888      1.0  1.0  1.0
N             -0.98151           -0.00213            3.14667      1.0  1.0  1.0
O             -1.95330           -0.78211            3.32999      1.0  1.0  1.0
O             -0.00288            0.00345            3.93951      1.0  1.0  1.0
H             -1.85081            0.82790            1.46395      1.0  1.0  1.0
H             -0.16677            1.50618            1.99023      1.0  1.0  1.0
H             -1.07370           -1.01248            1.40608      1.0  1.0  1.0
H              0.58253           -0.34503            1.92266      1.0  1.0  1.0

#