        30
i =          0, time =          0
   C       0.000000       0.000000       0.000000
   C       1.524999       0.000000       0.000000
   O      -0.494445       0.000000       1.135306
   N       1.657777       0.067091      -1.351136
   O       1.682456      -0.990926      -2.024726
   O       1.619895       1.189029      -1.922245
   H       1.714427      -0.968304       0.437981
   H       1.718574       0.924334       0.522925
   H       0.061833      -0.994860      -0.483025
   H       0.010888       0.919578      -0.616550
   C       5.000000       5.000000       5.000000
   C       6.500004       5.000000       5.000000
   O       4.505556       5.000000       6.135312
   N       6.632782       5.067097       3.648862
   O       6.657453       4.009087       2.975270
   O       6.594899       6.189037       3.077767
   H       6.689427       4.031698       5.437974
   H       6.693573       5.924332       5.522938
   H       5.061828       4.005150       4.516967
   H       5.010885       5.919592       4.383454
   C      10.000000      10.000000      10.000000
   C      11.549999      10.000000      10.000000
   O       9.505561      10.000000      11.135310
   N      11.682779      10.067097       8.648858
   O      11.707452       9.009070       7.975270
   O      11.644887      11.189029       8.077758
   H      11.739429       9.031694      10.437978
   H      11.743574      10.924330      10.522926
   H      10.061830       9.005138       9.516977
   H      10.010885      10.919576       9.383448
        30
i =          1, time =          1
   C       0.000000       0.000000       0.000000
   C       1.524998       0.000000       0.000000
   O      -0.494448       0.000000       1.135307
   N       1.658168       0.157654      -1.347554
   O       1.690509      -0.852837      -2.089232
   O       1.634161       1.316242      -1.840944
   H       1.753779      -0.993651       0.368959
   H       1.681895       0.896231       0.580924
   H       0.067388      -0.962438      -0.549580
   H       0.013545       0.920332      -0.615390
   C       5.000000       5.000000       5.000000
   C       6.500003       5.000000       5.000000
   O       4.505559       5.000000       6.135303
   N       6.633178       5.157659       3.652449
   O       6.665513       4.147172       2.910753
   O       6.609182       6.316249       3.159062
   H       6.728781       4.006340       5.368959
   H       6.656911       5.896230       5.580930
   H       5.067391       4.037564       4.450412
   H       5.013556       5.920337       4.384615
   C      10.000000      10.000000      10.000000
   C      11.550000      10.000000      10.000000
   O       9.505550      10.000000      11.135305
   N      11.683175      10.157651       8.652446
   O      11.715511       9.147162       7.910765
   O      11.659171      11.316239       8.159056
   H      11.778782       9.006350      10.368973
   H      11.706894      10.896237      10.580927
   H      10.067391       9.037559       9.450413
   H      10.013552      10.920332       9.384611
        30
i =          2, time =          2
   C       0.000000       0.000000       0.000000
   C       1.524997       0.000000       0.000000
   O      -0.494444       0.000000       1.135298
   N       1.658178       0.157656      -1.347547
   O       1.690514      -0.852836      -2.089240
   O       1.633109       1.319583      -1.832969
   H       1.753783      -0.993653       0.368963
   H       1.678740       0.886902       0.595894
   H       0.067400      -0.962959      -0.548991
   H      -0.015623       0.913248      -0.629157
   C       5.000000       5.000000       5.000000
   C       6.500005       5.000000       5.000000
   O       4.505561       5.000000       6.135303
   N       6.633170       5.157638       3.652443
   O       6.665509       4.147140       2.910763
   O       6.608099       6.319568       3.167017
   H       6.728785       4.006352       5.368976
   H       6.653737       5.886905       5.595891
   H       5.067405       4.037033       4.451021
   H       4.984376       5.913228       4.370836
   C      10.000000      10.000000      10.000000
   C      11.549997      10.000000      10.000000
   O       9.505549      10.000000      11.135301
   N      11.683176      10.157638       8.652444
   O      11.715507       9.147145       7.910767
   O      11.658105      11.319564       8.167018
   H      11.778781       9.006345      10.368972
   H      11.703730      10.886904      10.595891
   H      10.067397       9.037034       9.451017
   H       9.984382      10.913238       9.370837
        30
i =          3, time =          3
   C       0.000000       0.000000       0.000000
   C       1.524999       0.000000       0.000000
   O      -0.494446       0.000000       1.135307
   N       1.666630       0.157545      -1.346697
   O       1.702833      -0.852974      -2.088170
   O       1.680847       1.317268      -1.826687
   H       1.728022      -1.004821       0.368892
   H       1.728775       0.871035       0.602154
   H       0.055300      -1.008446      -0.461752
   H      -0.047785       0.914212      -0.631795
   C       5.000000       5.000000       5.000000
   C       6.500002       5.000000       5.000000
   O       4.505556       5.000000       6.135292
   N       6.641630       5.157538       3.653291
   O       6.677831       4.147014       2.911823
   O       6.655846       6.317260       3.173300
   H       6.703018       3.995173       5.368885
   H       6.703772       5.871028       5.602144
   H       5.055296       3.991556       4.538250
   H       4.952218       5.914208       4.368194
   C      10.000000      10.000000      10.000000
   C      11.550000      10.000000      10.000000
   O       9.505561      10.000000      11.135305
   N      11.691638      10.157554       8.653294
   O      11.727829       9.147032       7.911825
   O      11.705838      11.317280       8.173300
   H      11.753031       8.995178      10.368886
   H      11.753773      10.871041      10.602142
   H      10.055298       8.991555       9.538250
   H       9.952216      10.914208       9.368199
        30
i =          4, time =          4
   C       0.000000       0.000000       0.000000
   C       1.525001       0.000000       0.000000
   O      -0.494444       0.000000       1.135306
   N       1.666642       0.157532      -1.346707
   O       1.731505      -0.851729      -2.087934
   O       1.671433       1.311447      -1.840706
   H       1.752507      -0.997342       0.372529
   H       1.704194       0.875384       0.594908
   H       0.055296      -1.008445      -0.461748
   H      -0.038443       0.915286      -0.636950
   C       5.000000       5.000000       5.000000
   C       6.499998       5.000000       5.000000
   O       4.505557       5.000000       6.135300
   N       6.641626       5.157538       3.653286
   O       6.706491       4.148283       2.912066
   O       6.646423       6.311450       3.159294
   H       6.727506       4.002652       5.372510
   H       6.679188       5.875387       5.594897
   H       5.055292       3.991558       4.538247
   H       4.961553       5.915287       4.363045
   C      10.000000      10.000000      10.000000
   C      11.550000      10.000000      10.000000
   O       9.505545      10.000000      11.135303
   N      11.691630      10.157549       8.653301
   O      11.756503       9.148291       7.912069
   O      11.696438      11.311460       8.159311
   H      11.777501       9.002661      10.372524
   H      11.729186      10.875386      10.594916
   H      10.055291       8.991557       9.538243
   H       9.961553      10.915290       9.363043
        30
i =          5, time =          5
   C       0.000000       0.000000       0.000000
   C       1.525009       0.000000       0.000000
   O      -0.494440       0.000000       1.135302
   N       1.671907       0.157075      -1.342791
   O       1.739340      -0.852208      -2.083745
   O       1.702352       1.310964      -1.835940
   H       1.752621      -0.996853       0.373753
   H       1.721700       0.873050       0.587658
   H       0.055201      -1.006651      -0.460934
   H      -0.044681       0.911850      -0.641456
   C       5.000000       5.000000       5.000000
   C       6.500003       5.000000       5.000000
   O       4.505559       5.000000       6.135302
   N       6.646900       5.157093       3.657204
   O       6.714337       4.147806       2.916248
   O       6.677340       6.310975       3.164070
   H       6.727619       4.003141       5.373749
   H       6.696696       5.873056       5.587663
   H       5.055201       3.993351       4.539065
   H       4.955316       5.911854       4.358545
   C      10.000000      10.000000      10.000000
   C      11.549999      10.000000      10.000000
   O       9.505554      10.000000      11.135311
   N      11.696903      10.157092       8.657211
   O      11.764340       9.147802       7.916261
   O      11.727345      11.310970       8.164065
   H      11.777614       9.003154      10.373761
   H      11.746687      10.873062      10.587669
   H      10.055197       8.993344       9.539075
   H       9.955312      10.911850       9.358545
        30
i =          6, time =          6
   C       0.000000       0.000000       0.000000
   C       1.524994       0.000000       0.000000
   O      -0.494448       0.000000       1.135293
   N       1.671869       0.157060      -1.342530
   O       1.739076      -0.848958      -2.081078
   O       1.701049       1.315403      -1.825161
   H       1.751909      -0.993212       0.371727
   H       1.721656       0.873060       0.587659
   H       0.055183      -1.006648      -0.460936
   H      -0.039825       0.924026      -0.630164
   C       5.000000       5.000000       5.000000
   C       6.500004       5.000000       5.000000
   O       4.505547       5.000000       6.135297
   N       6.646870       5.157063       3.657476
   O       6.714094       4.151055       2.918926
   O       6.676052       6.315410       3.174841
   H       6.726908       4.006799       5.371722
   H       6.696659       5.873062       5.587671
   H       5.055192       3.993355       4.539058
   H       4.960173       5.924029       4.369841
   C      10.000000      10.000000      10.000000
   C      11.549993      10.000000      10.000000
   O       9.505554      10.000000      11.135308
   N      11.696867      10.157061       8.657477
   O      11.764079       9.151053       7.918921
   O      11.726044      11.315414       8.174840
   H      11.776908       9.006795      10.371726
   H      11.746657      10.873064      10.587663
   H      10.055198       8.993352       9.539068
   H       9.960172      10.924023       9.369839
        30
i =          7, time =          7
   C       0.000000       0.000000       0.000000
   C       1.525005       0.000000       0.000000
   O      -0.494440       0.000000       1.135309
   N       1.671870       0.157050      -1.342525
   O       1.707218      -0.846287      -2.083121
   O       1.737647       1.320028      -1.810207
   H       1.724154      -1.000582       0.367827
   H       1.750160       0.867838       0.585158
   H       0.055380      -1.009907      -0.462413
   H      -0.014713       0.934464      -0.616289
   C       5.000000       5.000000       5.000000
   C       6.499996       5.000000       5.000000
   O       4.505556       5.000000       6.135304
   N       6.646871       5.157052       3.657475
   O       6.682222       4.153713       2.916883
   O       6.712655       6.320026       3.189798
   H       6.699154       3.999411       5.367826
   H       6.725164       5.867844       5.585163
   H       5.055372       3.990103       4.537577
   H       4.985288       5.934467       4.383712
   C      10.000000      10.000000      10.000000
   C      11.549995      10.000000      10.000000
   O       9.505556      10.000000      11.135306
   N      11.696868      10.157068       8.657473
   O      11.732220       9.153726       7.916873
   O      11.762640      11.320049       8.189805
   H      11.749152       8.999414      10.367820
   H      11.775156      10.867842      10.585160
   H      10.055366       8.990102       9.537576
   H       9.985277      10.934468       9.383717
        30
i =          8, time =          8
   C       0.000000       0.000000       0.000000
   C       1.524995       0.000000       0.000000
   O      -0.494445       0.000000       1.135302
   N       1.677293       0.046408      -1.347832
   O       1.731417      -1.016050      -1.993697
   O       1.726673       1.172428      -1.897641
   H       1.736906      -0.962240       0.450846
   H       1.741415       0.913472       0.511642
   H       0.056262      -1.044361      -0.378100
   H      -0.034210       0.935183      -0.618455
   C       5.000000       5.000000       5.000000
   C       6.499992       5.000000       5.000000
   O       4.505555       5.000000       6.135298
   N       6.652296       5.046429       3.652173
   O       6.706424       3.983966       3.006295
   O       6.701677       6.172453       3.102377
   H       6.711900       4.037757       5.450838
   H       6.716422       5.913470       5.511655
   H       5.056252       3.955652       4.621894
   H       4.965797       5.935190       4.381549
   C      10.000000      10.000000      10.000000
   C      11.550008      10.000000      10.000000
   O       9.505559      10.000000      11.135298
   N      11.702303      10.046432       8.652173
   O      11.756435       8.983975       8.006291
   O      11.751690      11.172468       8.102383
   H      11.761906       9.037762      10.450841
   H      11.766418      10.913475      10.511665
   H      10.056270       8.955650       9.621889
   H       9.965801      10.935193       9.381553
        30
i =          9, time =          9
   C       0.000000       0.000000       0.000000
   C       1.524998       0.000000       0.000000
   O      -0.494446       0.000000       1.135307
   N       1.698162       0.311644      -1.309540
   O       1.782143      -0.604837      -2.151268
   O       1.722291       1.522487      -1.628968
   H       1.746924      -1.028212       0.257931
   H       1.744410       0.789066       0.685310
   H       0.062834      -0.947614      -0.576518
   H       0.021631       0.952932      -0.595236
   C       5.000000       5.000000       5.000000
   C       6.500002       5.000000       5.000000
   O       4.505555       5.000000       6.135301
   N       6.673168       5.311642       3.690470
   O       6.757154       4.395166       2.848733
   O       6.697316       6.522488       3.371041
   H       6.721919       3.971777       5.257927
   H       6.719411       5.789061       5.685324
   H       5.062836       4.052396       4.423478
   H       5.021637       5.952930       4.404773
   C      10.000000      10.000000      10.000000
   C      11.550002      10.000000      10.000000
   O       9.505554      10.000000      11.135305
   N      11.723165      10.311628       8.690464
   O      11.807153       9.395144       7.848735
   O      11.747302      11.522473       8.371022
   H      11.771924       8.971778      10.257936
   H      11.769405      10.789070      10.685312
   H      10.062835       9.052382       9.423481
   H      10.021634      10.952924       9.404763
        30
i =         10, time =         10
   C       0.000000       0.000000       0.000000
   C       1.525002       0.000000       0.000000
   O      -0.494443       0.000000       1.135297
   N       1.698173       0.174049      -1.334802
   O       1.804060      -0.826544      -2.077890
   O       1.709061       1.344723      -1.779962
   H       1.764789      -0.986800       0.363300
   H       1.741261       0.854689       0.598051
   H       0.062815      -1.016728      -0.442501
   H      -0.060293       0.927984      -0.630922
   C       5.000000       5.000000       5.000000
   C       6.500003       5.000000       5.000000
   O       4.505559       5.000000       6.135307
   N       6.673164       5.174058       3.665196
   O       6.779042       4.173474       2.922102
   O       6.684055       6.344741       3.220060
   H       6.739780       4.013191       5.363281
   H       6.716269       5.854689       5.598061
   H       5.062810       3.983283       4.557501
   H       4.939708       5.927990       4.369099
   C      10.000000      10.000000      10.000000
   C      11.550002      10.000000      10.000000
   O       9.505565      10.000000      11.135306
   N      11.723167      10.174055       8.665198
   O      11.829058       9.173455       7.922113
   O      11.734052      11.344729       8.220046
   H      11.789799       9.013200      10.363293
   H      11.766266      10.854692      10.598051
   H      10.062823       8.983271       9.557511
   H       9.939707      10.927983       9.369081
        30
i =         11, time =         11
   C       0.000000       0.000000       0.000000
   C       1.525000       0.000000       0.000000
   O      -0.494447       0.000000       1.135303
   N       1.698161       0.174056      -1.334815
   O       1.822931      -0.824078      -2.073800
   O       1.689666       1.339912      -1.781132
   H       1.781469      -0.983452       0.367573
   H       1.727717       0.867691       0.592163
   H       0.067330      -1.012481      -0.451479
   H      -0.060345       0.927969      -0.630930
   C       5.000000       5.000000       5.000000
   C       6.499999       5.000000       5.000000
   O       4.505547       5.000000       6.135305
   N       6.673166       5.174058       3.665199
   O       6.797937       4.175928       2.926211
   O       6.664669       6.339909       3.218869
   H       6.756464       4.016543       5.367578
   H       6.702708       5.867689       5.592166
   H       5.067325       3.987522       4.548522
   H       4.939653       5.927971       4.369071
   C      10.000000      10.000000      10.000000
   C      11.550003      10.000000      10.000000
   O       9.505562      10.000000      11.135306
   N      11.723157      10.174058       8.665194
   O      11.847924       9.175926       7.926196
   O      11.714665      11.339905       8.218868
   H      11.806471       9.016547      10.367576
   H      11.752716      10.867694      10.592161
   H      10.067327       8.987527       9.548524
   H       9.939657      10.927975       9.369068
        30
i =         12, time =         12
   C       0.000000       0.000000       0.000000
   C       1.525001       0.000000       0.000000
   O      -0.494445       0.000000       1.135294
   N       1.692132       0.173650      -1.331686
   O       1.794866      -0.824218      -2.067592
   O       1.668080       1.336764      -1.793774
   H       1.758347      -0.994697       0.362422
   H       1.786294       0.851337       0.594058
   H       0.074517      -0.928577      -0.606527
   H      -0.013691       0.949574      -0.608701
   C       5.000000       5.000000       5.000000
   C       6.500008       5.000000       5.000000
   O       4.505552       5.000000       6.135297
   N       6.667135       5.173653       3.668318
   O       6.769866       4.175794       2.932405
   O       6.643087       6.336768       3.206233
   H       6.733351       4.005295       5.362414
   H       6.761299       5.851320       5.594062
   H       5.074514       4.071428       4.393465
   H       4.986317       5.949580       4.391303
   C      10.000000      10.000000      10.000000
   C      11.550005      10.000000      10.000000
   O       9.505549      10.000000      11.135300
   N      11.717129      10.173655       8.668305
   O      11.819858       9.175803       7.932398
   O      11.693079      11.336781       8.206228
   H      11.783353       9.005300      10.362404
   H      11.811302      10.851329      10.594058
   H      10.074511       9.071429       9.393471
   H       9.986306      10.949576       9.391308
        30
i =         13, time =         13
   C       0.000000       0.000000       0.000000
   C       1.525001       0.000000       0.000000
   O      -0.494446       0.000000       1.135304
   N       1.676300       0.173885      -1.333553
   O       1.735375      -0.824643      -2.075508
   O       1.701903       1.339776      -1.788508
   H       1.731988      -1.002175       0.354537
   H       1.817189       0.844521       0.589359
   H       0.072127      -1.004639      -0.477682
   H      -0.062209       0.933708      -0.629829
   C       5.000000       5.000000       5.000000
   C       6.499992       5.000000       5.000000
   O       4.505549       5.000000       6.135300
   N       6.651297       5.173903       3.666449
   O       6.710373       4.175379       2.924487
   O       6.676911       6.339798       3.211500
   H       6.706977       3.997826       5.354532
   H       6.792190       5.844518       5.589374
   H       5.072121       3.995371       4.522313
   H       4.937795       5.933725       4.370179
   C      10.000000      10.000000      10.000000
   C      11.550003      10.000000      10.000000
   O       9.505560      10.000000      11.135299
   N      11.701305      10.173882       8.666449
   O      11.760385       9.175354       7.924495
   O      11.726918      11.339775       8.211491
   H      11.756994       8.997831      10.354542
   H      11.842192      10.844524      10.589365
   H      10.072135       8.995370       9.522323
   H       9.937793      10.933717       9.370171
        30
i =         14, time =         14
   C       0.000000       0.000000       0.000000
   C       1.525002       0.000000       0.000000
   O      -0.494440       0.000000       1.135299
   N       1.686794       0.174009      -1.334362
   O       1.750483      -0.824578      -2.075869
   O       1.724451       1.340012      -1.788182
   H       1.702011      -1.008768       0.352062
   H       1.841798       0.840887       0.590333
   H       0.068905      -1.004809      -0.477778
   H      -0.060867       0.939579      -0.630099
   C       5.000000       5.000000       5.000000
   C       6.499996       5.000000       5.000000
   O       4.505562       5.000000       6.135305
   N       6.661787       5.174005       3.665627
   O       6.725471       4.175423       2.924128
   O       6.699439       6.340009       3.211809
   H       6.677012       3.991233       5.352057
   H       6.816800       5.840879       5.590322
   H       5.068900       3.995192       4.522225
   H       4.939121       5.939576       4.369909
   C      10.000000      10.000000      10.000000
   C      11.550002      10.000000      10.000000
   O       9.505557      10.000000      11.135303
   N      11.711781      10.174005       8.665623
   O      11.775473       9.175424       7.924121
   O      11.749432      11.340015       8.211805
   H      11.727012       8.991237      10.352057
   H      11.866794      10.840889      10.590323
   H      10.068899       8.995192       9.522229
   H       9.939120      10.939574       9.369905
        30
i =         15, time =         15
   C       0.000000       0.000000       0.000000
   C       1.524998       0.000000       0.000000
   O      -0.494437       0.000000       1.135308
   N       1.691165       0.449929      -1.268057
   O       1.772222      -0.378846      -2.191615
   O       1.730843       1.687069      -1.454780
   H       1.730433      -1.054786       0.131218
   H       1.834476       0.703187       0.757075
   H       0.079140      -0.881723      -0.677461
   H       0.011317       0.965602      -0.594865
   C       5.000000       5.000000       5.000000
   C       6.500001       5.000000       5.000000
   O       4.505556       5.000000       6.135307
   N       6.666162       5.449926       3.731936
   O       6.747219       4.621134       2.808381
   O       6.705825       6.687058       3.545204
   H       6.705429       3.945224       5.131229
   H       6.809470       5.703195       5.757064
   H       5.079144       4.118262       4.322551
   H       5.011306       5.965590       4.405127
   C      10.000000      10.000000      10.000000
   C      11.549998      10.000000      10.000000
   O       9.505556      10.000000      11.135301
   N      11.716159      10.449931       8.731944
   O      11.797212       9.621150       7.808376
   O      11.755834      11.687069       8.545215
   H      11.755426       8.945215      10.131218
   H      11.859476      10.703188      10.757070
   H      10.079137       9.118270       9.322531
   H      10.011314      10.965606       9.405126
        30
i =         16, time =         16
   C       0.000000       0.000000       0.000000
   C       1.525000       0.000000       0.000000
   O      -0.494433       0.000000       1.135308
   N       1.703346       0.174051      -1.334736
   O       1.781462      -0.824798      -2.074495
   O       1.741068       1.339541      -1.788906
   H       1.702443      -1.007597       0.355154
   H       1.860452       0.835640       0.595674
   H       0.070359      -0.959762      -0.559302
   H      -0.048290       0.950971      -0.616194
   C       5.000000       5.000000       5.000000
   C       6.499999       5.000000       5.000000
   O       4.505547       5.000000       6.135297
   N       6.678359       5.174043       3.665273
   O       6.756475       4.175198       2.925509
   O       6.716081       6.339538       3.211100
   H       6.677441       3.992399       5.355159
   H       6.835449       5.835641       5.595683
   H       5.070376       4.040243       4.440689
   H       4.951719       5.950967       4.383795
   C      10.000000      10.000000      10.000000
   C      11.550002      10.000000      10.000000
   O       9.505550      10.000000      11.135292
   N      11.728355      10.174037       8.665260
   O      11.806480       9.175185       7.925505
   O      11.766079      11.339527       8.211092
   H      11.727443       8.992395      10.355166
   H      11.885447      10.835650      10.595672
   H      10.070370       9.040230       9.440693
   H       9.951715      10.950958       9.383787
        30
i =         17, time =         17
   C       0.000000       0.000000       0.000000
   C       1.525009       0.000000       0.000000
   O      -0.494446       0.000000       1.135300
   N       1.703356       0.403370      -1.284167
   O       1.782655      -0.448203      -2.194495
   O       1.730917       1.627221      -1.543988
   H       1.700062      -1.055671       0.166730
   H       1.887079       0.701867       0.736174
   H       0.070127      -0.967407      -0.537885
   H      -0.051672       0.951170      -0.615601
   C       5.000000       5.000000       5.000000
   C       6.500001       5.000000       5.000000
   O       4.505559       5.000000       6.135300
   N       6.678356       5.403361       3.715827
   O       6.757664       4.551777       2.805507
   O       6.705917       6.627209       3.455996
   H       6.675065       3.944337       5.166741
   H       6.862071       5.701875       5.736165
   H       5.070131       4.032570       4.462118
   H       4.948314       5.951161       4.384385
   C      10.000000      10.000000      10.000000
   C      11.550005      10.000000      10.000000
   O       9.505554      10.000000      11.135302
   N      11.728353      10.403375       8.715832
   O      11.807658       9.551801       7.805504
   O      11.755925      11.627220       8.456018
   H      11.725061       8.944323      10.166725
   H      11.912086      10.701854      10.736170
   H      10.070122       9.032592       9.462114
   H       9.948325      10.951177       9.384396
        30
i =         18, time =         18
   C       0.000000       0.000000       0.000000
   C       1.524997       0.000000       0.000000
   O      -0.494452       0.000000       1.135302
   N       1.703002       0.402596      -1.281687
   O       1.764139      -0.465281      -2.177913
   O       1.722373       1.625810      -1.530594
   H       1.685446      -1.058524       0.169955
   H       1.900281       0.710522       0.724366
   H       0.076208      -0.987385      -0.500430
   H      -0.076232       0.942500      -0.626293
   C       5.000000       5.000000       5.000000
   C       6.500002       5.000000       5.000000
   O       4.505564       5.000000       6.135309
   N       6.678000       5.402584       3.718295
   O       6.739136       4.534701       2.822075
   O       6.697362       6.625786       3.469383
   H       6.660456       3.941480       5.169956
   H       6.875293       5.710537       5.724341
   H       5.076213       4.012604       4.499582
   H       4.923764       5.942494       4.373707
   C      10.000000      10.000000      10.000000
   C      11.549990      10.000000      10.000000
   O       9.505546      10.000000      11.135299
   N      11.728012      10.402591       8.718309
   O      11.789137       9.534720       7.822078
   O      11.747378      11.625798       8.469405
   H      11.710441       8.941469      10.169954
   H      11.925285      10.710519      10.724357
   H      10.076202       9.012618       9.499570
   H       9.923768      10.942503       9.373704
        30
i =         19, time =         19
   C       0.000000       0.000000       0.000000
   C       1.525010       0.000000       0.000000
   O      -0.494438       0.000000       1.135306
   N       1.693276       0.403761      -1.285410
   O       1.793609      -0.454923      -2.187889
   O       1.674560       1.625472      -1.555877
   H       1.704008      -1.058495       0.161498
   H       1.894627       0.708470       0.729922
   H       0.065045      -0.970778      -0.539756
   H      -0.042982       0.958892      -0.604174
   C       5.000000       5.000000       5.000000
   C       6.499991       5.000000       5.000000